# epsilon and Z* of atoms 1 5
  18.34173087    0.00000000    0.00000000    0.00000000   16.79496730    0.00000000    0.00000000    0.00000000   22.42036118 
  -3.93299399   -0.57934584    0.00000000   -0.52175914   -3.93869309    0.00000000    0.00000000    0.00000000   -4.79109603 
   3.93299399   -0.50352036    0.00000000    0.11662512    3.93869309    0.00000000    0.00000000    0.00000000    4.79109603 
