# epsilon and Z* of atoms 1 5
  19.62217822    0.00000000    0.00000000    0.00000000   17.77545448    0.00000000    0.00000000    0.00000000   23.65120388 
  -4.14918795   -0.53187075    0.00000000   -0.45892914   -4.10727653    0.00000000    0.00000000    0.00000000   -4.86749950 
   4.14918795   -0.52583738    0.00000000    0.00032586    4.10727653    0.00000000    0.00000000    0.00000000    4.86749950 
