# epsilon and Z* of atoms 1 5
  18.61859530    0.00000000    0.00000000    0.00000000   17.10144071    0.00000000    0.00000000    0.00000000   22.10316262 
  -4.16427992   -0.70145443    0.00000000   -0.51287293   -4.15350350    0.00000000    0.00000000    0.00000000   -4.85765439 
   4.16427992   -0.64833268    0.00000000    0.02102285    4.15350350    0.00000000    0.00000000    0.00000000    4.85765439 
