# epsilon and Z* of atoms 1 5
  25.18313295    0.00000000    0.00000000    0.00000000   28.44193099    0.00000000    0.00000000    0.00000000   30.78780522 
  -4.09535656   -0.57253932    0.00000000   -0.68728458   -4.29661730    0.00000000    0.00000000    0.00000000   -4.66830857 
   4.09535656   -0.57999685    0.00000000    0.09322783    4.29661730    0.00000000    0.00000000    0.00000000    4.66830857 
