# epsilon and Z* of atoms 1 5
  13.03144927    0.00000000    0.00000000    0.00000000   12.98492303    0.00000000    0.00000000    0.00000000   14.65902823 
  -3.05139631   -0.73669263    0.00000000   -0.71314864   -3.31228128    0.00000000    0.00000000    0.00000000   -3.70771052 
   3.05139631   -0.73356395    0.00000000    0.13238566    3.31228128    0.00000000    0.00000000    0.00000000    3.70771052 
