# epsilon and Z* of atoms 1 5
  17.92752910    0.00000000    0.00000000    0.00000000   17.00918732    0.00000000    0.00000000    0.00000000   21.54243988 
  -3.82939205   -0.59898705    0.00000000   -0.57116109   -4.00512176    0.00000000    0.00000000    0.00000000   -4.55139873 
   3.82939205   -0.55464730    0.00000000    0.11918521    4.00512176    0.00000000    0.00000000    0.00000000    4.55139873 
