nqpoint: 102    
npath: 2      
segment_nqpoint:
- 51
- 51
reciprocal_lattice:
- [  -0.18396912,   0.18396912,   0.18396912 ] # a*
- [   0.18396912,  -0.18396912,   0.18396912 ] # b*
- [   0.18396912,   0.18396912,  -0.18396912 ] # c*
natom: 2      
lattice:
- [     0.000000000000000,     2.717847358782217,     2.717847358782217 ] # a
- [     2.717847358782217,     0.000000000000000,     2.717847358782217 ] # b
- [     2.717847358782217,     2.717847358782217,     0.000000000000000 ] # c
points:
- symbol: Si # 1
  coordinates: [  0.250000000000000,  0.250000000000000,  0.250000000000000 ]
  mass: 28.085500
- symbol: Si # 2
  coordinates: [  0.000000000000000,  0.000000000000000,  0.000000000000000 ]
  mass: 28.085500

phonon:
- q-position: [    0.5000000,    0.0000000,    0.5000000 ]
  distance:    0.0000000
  band:
  - # 1
    frequency:    4.0464547014
    eigenvector:
    - # atom 1
      - [ -0.05079607465190, -0.00000000000000 ]
      - [  0.00000000000000,  0.00000000000000 ]
      - [  0.70526889811683,  0.00394209957103 ]
    - # atom 2
      - [ -0.00394209957103,  0.70526889811683 ]
      - [ -0.00000000000000, -0.00000000000000 ]
      - [  0.00000000000000, -0.05079607465190 ]
  - # 2
    frequency:    4.0464547014
    eigenvector:
    - # atom 1
      - [ -0.70527991521095,  0.00000000000000 ]
      - [  0.00000000000000, -0.00000000000000 ]
      - [ -0.05079528117243, -0.00028392015677 ]
    - # atom 2
      - [  0.00028392015677, -0.05079528117243 ]
      - [  0.00000000000000,  0.00000000000000 ]
      - [  0.00000000000000, -0.70527991521095 ]
  - # 3
    frequency:   12.1259574933
    eigenvector:
    - # atom 1
      - [ -0.00000000000000,  0.00000000000000 ]
      - [  0.91548031793805,  0.05175106203658 ]
      - [  0.00000000000000,  0.00000000000000 ]
    - # atom 2
      - [  0.00000000000000, -0.00000000000000 ]
      - [ -0.15007262436082, -0.36972398145588 ]
      - [ -0.00000000000000,  0.00000000000000 ]
  - # 4
    frequency:   12.1259574933
    eigenvector:
    - # atom 1
      - [  0.00000000000000,  0.00000000000000 ]
      - [  0.39896526857321, -0.00665804163660 ]
      - [  0.00000000000000, -0.00000000000000 ]
    - # atom 2
      - [ -0.00000000000000,  0.00000000000000 ]
      - [  0.40604031359685,  0.82213967711578 ]
      - [  0.00000000000000,  0.00000000000000 ]
  - # 5
    frequency:   13.6934387866
    eigenvector:
    - # atom 1
      - [  0.41308226604253,  0.00000000000000 ]
      - [ -0.00000000000000, -0.00000000000000 ]
      - [  0.57390106969865,  0.00077696840777 ]
    - # atom 2
      - [  0.00077696840777, -0.57390106969865 ]
      - [  0.00000000000000,  0.00000000000000 ]
      - [ -0.00000000000000, -0.41308226604253 ]
  - # 6
    frequency:   13.6934387866
    eigenvector:
    - # atom 1
      - [  0.57390159564264,  0.00000000000000 ]
      - [  0.00000000000000,  0.00000000000000 ]
      - [ -0.41308188747914, -0.00055924547512 ]
    - # atom 2
      - [ -0.00055924547512,  0.41308188747914 ]
      - [ -0.00000000000000, -0.00000000000000 ]
      - [  0.00000000000000, -0.57390159564264 ]

- q-position: [    0.4900000,    0.0000000,    0.4900000 ]
  distance:    0.0036794
  band:
  - # 1
    frequency:    4.0467049170
    eigenvector:
    - # atom 1
      - [  0.01645323209869,  0.00000000000000 ]
      - [ -0.00000000000000,  0.00000000000000 ]
      - [ -0.69129059483838, -0.14780596957332 ]
    - # atom 2
      - [  0.14831365524763, -0.69081695544304 ]
      - [ -0.00000000000000,  0.00000000000000 ]
      - [ -0.02558555421332,  0.01097147005134 ]
  - # 2
    frequency:    4.0467049170
    eigenvector:
    - # atom 1
      - [ -0.70691533520890,  0.00000000000000 ]
      - [ -0.00000000000000,  0.00000000000000 ]
      - [ -0.01608957118062, -0.00344013745613 ]
    - # atom 2
      - [ -0.02272606551683, -0.01607854737266 ]
      - [  0.00000000000000,  0.00000000000000 ]
      - [ -0.00059549572753, -0.70655831439829 ]
  - # 3
    frequency:   11.9771473360
    eigenvector:
    - # atom 1
      - [  0.00000000000000,  0.00000000000000 ]
      - [ -0.70445740600992,  0.06115360265565 ]
      - [  0.00000000000000,  0.00000000000000 ]
    - # atom 2
      - [  0.00000000000000, -0.00000000000000 ]
      - [ -0.70445740600993,  0.06115360265565 ]
      - [ -0.00000000000000, -0.00000000000000 ]
  - # 4
    frequency:   12.2706533463
    eigenvector:
    - # atom 1
      - [ -0.00000000000000, -0.00000000000000 ]
      - [  0.70346774464664,  0.07164588084300 ]
      - [  0.00000000000000,  0.00000000000000 ]
    - # atom 2
      - [  0.00000000000000, -0.00000000000000 ]
      - [ -0.70346774464664, -0.07164588084301 ]
      - [ -0.00000000000000,  0.00000000000000 ]
  - # 5
    frequency:   13.6937219654
    eigenvector:
    - # atom 1
      - [ -0.70606867299051,  0.00000000000000 ]
      - [ -0.00000000000000, -0.00000000000000 ]
      - [ -0.03803450770591, -0.00451721650946 ]
    - # atom 2
      - [  0.02161838836890,  0.03800844827248 ]
      - [  0.00000000000000,  0.00000000000000 ]
      - [  0.00140770605900,  0.70575209635388 ]
  - # 6
    frequency:   13.6937219654
    eigenvector:
    - # atom 1
      - [  0.03830181485810,  0.00000000000000 ]
      - [ -0.00000000000000,  0.00000000000000 ]
      - [ -0.70114104209554, -0.08327190443218 ]
    - # atom 2
      - [ -0.08463244992937,  0.70066065364283 ]
      - [ -0.00000000000000,  0.00000000000000 ]
      - [  0.02595013193824, -0.03519357197186 ]

- q-position: [    0.4800000,    0.0000000,    0.4800000 ]
  distance:    0.0073588
  band:
  - # 1
    frequency:    4.0474246179
    eigenvector:
    - # atom 1
      - [ -0.06623131446814,  0.00000000000000 ]
      - [  0.00000000000000,  0.00000000000000 ]
      - [ -0.48635879065975, -0.50898775990372 ]
    - # atom 2
      - [  0.50269115038114, -0.48502532242963 ]
      - [  0.00000000000000,  0.00000000000000 ]
      - [ -0.03599041336323, -0.10371467628288 ]
  - # 2
    frequency:    4.0474246179
    eigenvector:
    - # atom 1
      - [ -0.70399816262816, -0.00000000000000 ]
      - [ -0.00000000000000, -0.00000000000000 ]
      - [  0.04575605977191,  0.04788496643339 ]
    - # atom 2
      - [ -0.09984934393384,  0.04563060865802 ]
      - [  0.00000000000000, -0.00000000000000 ]
      - [  0.00338593552063, -0.69852451031451 ]
  - # 3
    frequency:   11.8241880519
    eigenvector:
    - # atom 1
      - [ -0.00000000000000,  0.00000000000000 ]
      - [  0.66713482300333, -0.23437390626159 ]
      - [  0.00000000000000, -0.00000000000000 ]
    - # atom 2
      - [ -0.00000000000000, -0.00000000000000 ]
      - [  0.66713482300333, -0.23437390626159 ]
      - [ -0.00000000000000,  0.00000000000000 ]
  - # 4
    frequency:   12.4112688240
    eigenvector:
    - # atom 1
      - [  0.00000000000000, -0.00000000000000 ]
      - [ -0.67356989802044, -0.21518269558850 ]
      - [  0.00000000000000, -0.00000000000000 ]
    - # atom 2
      - [ -0.00000000000000, -0.00000000000000 ]
      - [  0.67356989802044,  0.21518269558850 ]
      - [ -0.00000000000000, -0.00000000000000 ]
  - # 5
    frequency:   13.6945847407
    eigenvector:
    - # atom 1
      - [  0.35415836118598,  0.00000000000000 ]
      - [  0.00000000000000,  0.00000000000000 ]
      - [  0.59485625097938,  0.14393712472054 ]
    - # atom 2
      - [  0.11733486801921, -0.59322531117238 ]
      - [ -0.00000000000000, -0.00000000000000 ]
      - [ -0.04401919483229, -0.36383865849806 ]
  - # 6
    frequency:   13.6945847407
    eigenvector:
    - # atom 1
      - [  0.61202275709492,  0.00000000000000 ]
      - [  0.00000000000000,  0.00000000000000 ]
      - [ -0.34422464286801, -0.08329189660662 ]
    - # atom 2
      - [ -0.12835304351808,  0.34328086918877 ]
      - [ -0.00000000000000, -0.00000000000000 ]
      - [  0.02547252650625, -0.60418117436911 ]

- q-position: [    0.4700000,    0.0000000,    0.4700000 ]
  distance:    0.0110381
  band:
  - # 1
    frequency:    4.0485223719
    eigenvector:
    - # atom 1
      - [  0.70325410082511,  0.00000000000000 ]
      - [  0.00000000000000,  0.00000000000000 ]
      - [  0.05818305217580,  0.04525927653166 ]
    - # atom 2
      - [  0.03303942867568,  0.05782389147145 ]
      - [ -0.00000000000000, -0.00000000000000 ]
      - [  0.00645485364595,  0.70393403710312 ]
  - # 2
    frequency:    4.0485223719
    eigenvector:
    - # atom 1
      - [ -0.07371342939154,  0.00000000000000 ]
      - [  0.00000000000000,  0.00000000000000 ]
      - [  0.55508840626334,  0.43179068025997 ]
    - # atom 2
      - [ -0.43730306129899,  0.55166187679267 ]
      - [ -0.00000000000000,  0.00000000000000 ]
      - [  0.06158175429102, -0.02535535072833 ]
  - # 3
    frequency:   11.6670441825
    eigenvector:
    - # atom 1
      - [ -0.00000000000000,  0.00000000000000 ]
      - [  0.65802761482778, -0.25884292171905 ]
      - [ -0.00000000000000,  0.00000000000000 ]
    - # atom 2
      - [ -0.00000000000000,  0.00000000000000 ]
      - [  0.65802761482779, -0.25884292171905 ]
      - [  0.00000000000000,  0.00000000000000 ]
  - # 4
    frequency:   12.5478368562
    eigenvector:
    - # atom 1
      - [  0.00000000000000, -0.00000000000000 ]
      - [ -0.67372254799842, -0.21470428109034 ]
      - [ -0.00000000000000,  0.00000000000000 ]
    - # atom 2
      - [ -0.00000000000000,  0.00000000000000 ]
      - [  0.67372254799842,  0.21470428109034 ]
      - [  0.00000000000000, -0.00000000000000 ]
  - # 5
    frequency:   13.6960661128
    eigenvector:
    - # atom 1
      - [  0.48472642361276,  0.00000000000000 ]
      - [  0.00000000000000, -0.00000000000000 ]
      - [  0.47567062600187,  0.19692066882522 ]
    - # atom 2
      - [  0.14192932393678, -0.47273433801615 ]
      - [  0.00000000000000,  0.00000000000000 ]
      - [ -0.05277111048147, -0.50358070114514 ]
  - # 6
    frequency:   13.6960661128
    eigenvector:
    - # atom 1
      - [ -0.51482064279862,  0.00000000000000 ]
      - [ -0.00000000000000, -0.00000000000000 ]
      - [  0.44786494983209,  0.18540952634725 ]
    - # atom 2
      - [  0.24137943451331, -0.44510030471942 ]
      - [  0.00000000000000,  0.00000000000000 ]
      - [ -0.04968633641942,  0.49107326877558 ]

- q-position: [    0.4600000,    0.0000000,    0.4600000 ]
  distance:    0.0147175
  band:
  - # 1
    frequency:    4.0498503653
    eigenvector:
    - # atom 1
      - [ -0.05121328219003,  0.00000000000000 ]
      - [ -0.00000000000000,  0.00000000000000 ]
      - [ -0.64308201870355,  0.28952153106029 ]
    - # atom 2
      - [ -0.29391115523520, -0.63601876372797 ]
      - [ -0.00000000000000,  0.00000000000000 ]
      - [ -0.09505059161191, -0.00785811990743 ]
  - # 2
    frequency:    4.0498503653
    eigenvector:
    - # atom 1
      - [  0.70524974280557,  0.00000000000000 ]
      - [  0.00000000000000,  0.00000000000000 ]
      - [ -0.04669883432241,  0.02102425136845 ]
    - # atom 2
      - [  0.08344594525024, -0.04618592031721 ]
      - [ -0.00000000000000,  0.00000000000000 ]
      - [ -0.00690231059310,  0.70061115684395 ]
  - # 3
    frequency:   11.5056800417
    eigenvector:
    - # atom 1
      - [  0.00000000000000,  0.00000000000000 ]
      - [ -0.66461046802051,  0.24143927973209 ]
      - [  0.00000000000000,  0.00000000000000 ]
    - # atom 2
      - [  0.00000000000000, -0.00000000000000 ]
      - [ -0.66461046802052,  0.24143927973209 ]
      - [  0.00000000000000, -0.00000000000000 ]
  - # 4
    frequency:   12.6803894130
    eigenvector:
    - # atom 1
      - [ -0.00000000000000, -0.00000000000000 ]
      - [  0.66637230942578,  0.23653317997809 ]
      - [  0.00000000000000,  0.00000000000000 ]
    - # atom 2
      - [  0.00000000000000, -0.00000000000000 ]
      - [ -0.66637230942578, -0.23653317997809 ]
      - [  0.00000000000000,  0.00000000000000 ]
  - # 5
    frequency:   13.6982287474
    eigenvector:
    - # atom 1
      - [  0.11091548259589,  0.00000000000000 ]
      - [ -0.00000000000000, -0.00000000000000 ]
      - [  0.49892742268967,  0.48864013610096 ]
    - # atom 2
      - [  0.46687934711101, -0.49344748156510 ]
      - [  0.00000000000000,  0.00000000000000 ]
      - [ -0.07374385431219, -0.18192059292297 ]
  - # 6
    frequency:   13.6982287474
    eigenvector:
    - # atom 1
      - [ -0.69835360364254,  0.00000000000000 ]
      - [ -0.00000000000000, -0.00000000000000 ]
      - [  0.07924177032853,  0.07760789982133 ]
    - # atom 2
      - [  0.17997549350510, -0.07837142282655 ]
      - [  0.00000000000000,  0.00000000000000 ]
      - [ -0.01171231185298,  0.67921245834628 ]

- q-position: [    0.4500000,    0.0000000,    0.4500000 ]
  distance:    0.0183969
  band:
  - # 1
    frequency:    4.0512108911
    eigenvector:
    - # atom 1
      - [  0.01780467434596,  0.00000000000000 ]
      - [ -0.00000000000000,  0.00000000000000 ]
      - [ -0.67457589760507, -0.21125896890251 ]
    - # atom 2
      - [  0.21091586453770, -0.66298770125946 ]
      - [ -0.00000000000000,  0.00000000000000 ]
      - [ -0.12449879360211, -0.02149084587984 ]
  - # 2
    frequency:    4.0512108911
    eigenvector:
    - # atom 1
      - [ -0.70688258825029,  0.00000000000000 ]
      - [  0.00000000000000, -0.00000000000000 ]
      - [ -0.01699094641477, -0.00532110594672 ]
    - # atom 2
      - [ -0.12523157432046, -0.01669906758564 ]
      - [  0.00000000000000,  0.00000000000000 ]
      - [ -0.00313582554358, -0.69572146763856 ]
  - # 3
    frequency:   11.3400602696
    eigenvector:
    - # atom 1
      - [ -0.00000000000000,  0.00000000000000 ]
      - [  0.55365526592770, -0.43984752643448 ]
      - [ -0.00000000000000, -0.00000000000000 ]
    - # atom 2
      - [ -0.00000000000000, -0.00000000000000 ]
      - [  0.55365526592770, -0.43984752643448 ]
      - [ -0.00000000000000,  0.00000000000000 ]
  - # 4
    frequency:   12.8089576763
    eigenvector:
    - # atom 1
      - [  0.00000000000000, -0.00000000000000 ]
      - [ -0.58411106500923, -0.39851507340850 ]
      - [ -0.00000000000000, -0.00000000000000 ]
    - # atom 2
      - [ -0.00000000000000,  0.00000000000000 ]
      - [  0.58411106500923,  0.39851507340850 ]
      - [  0.00000000000000, -0.00000000000000 ]
  - # 5
    frequency:   13.7011556598
    eigenvector:
    - # atom 1
      - [ -0.70181467248380,  0.00000000000000 ]
      - [ -0.00000000000000, -0.00000000000000 ]
      - [ -0.07624748963886, -0.04052759319556 ]
    - # atom 2
      - [  0.08969455389823,  0.07493767278366 ]
      - [  0.00000000000000,  0.00000000000000 ]
      - [  0.01407213111071,  0.69723827155770 ]
  - # 6
    frequency:   13.7011556598
    eigenvector:
    - # atom 1
      - [  0.08634909082586,  0.00000000000000 ]
      - [  0.00000000000000,  0.00000000000000 ]
      - [ -0.61971245391018, -0.32939385085664 ]
    - # atom 2
      - [ -0.33967183001705,  0.60906672876758 ]
      - [ -0.00000000000000, -0.00000000000000 ]
      - [  0.11437327240113, -0.02407327068537 ]

- q-position: [    0.4400000,    0.0000000,    0.4400000 ]
  distance:    0.0220763
  band:
  - # 1
    frequency:    4.0523647212
    eigenvector:
    - # atom 1
      - [  0.09278882356438,  0.00000000000000 ]
      - [ -0.00000000000000, -0.00000000000000 ]
      - [ -0.54156079402882, -0.44508666638354 ]
    - # atom 2
      - [  0.45458638977716, -0.52815025071035 ]
      - [ -0.00000000000000, -0.00000000000000 ]
      - [ -0.11977231025456, -0.00794484740227 ]
  - # 2
    frequency:    4.0523647212
    eigenvector:
    - # atom 1
      - [  0.70099232108600,  0.00000000000000 ]
      - [  0.00000000000000,  0.00000000000000 ]
      - [  0.07168522030124,  0.05891515058816 ]
    - # atom 2
      - [  0.09757615173781,  0.06991009595187 ]
      - [ -0.00000000000000,  0.00000000000000 ]
      - [  0.01585399929473,  0.69666356572050 ]
  - # 3
    frequency:   11.1701505163
    eigenvector:
    - # atom 1
      - [ -0.00000000000000,  0.00000000000000 ]
      - [  0.06057614906951, -0.70450729603313 ]
      - [  0.00000000000000,  0.00000000000000 ]
    - # atom 2
      - [ -0.00000000000000,  0.00000000000000 ]
      - [  0.06057614906951, -0.70450729603313 ]
      - [  0.00000000000000,  0.00000000000000 ]
  - # 4
    frequency:   12.9335723266
    eigenvector:
    - # atom 1
      - [  0.00000000000000, -0.00000000000000 ]
      - [ -0.48194488031106, -0.51742548482072 ]
      - [ -0.00000000000000, -0.00000000000000 ]
    - # atom 2
      - [ -0.00000000000000,  0.00000000000000 ]
      - [  0.48194488031106,  0.51742548482072 ]
      - [  0.00000000000000, -0.00000000000000 ]
  - # 5
    frequency:   13.7049459339
    eigenvector:
    - # atom 1
      - [  0.68902766686929,  0.00000000000000 ]
      - [  0.00000000000000,  0.00000000000000 ]
      - [  0.15873592613458, -0.00661664891454 ]
    - # atom 2
      - [ -0.15883908366665, -0.15480518551026 ]
      - [ -0.00000000000000, -0.00000000000000 ]
      - [ -0.03510624994121, -0.67050208892600 ]
  - # 6
    frequency:   13.7049459339
    eigenvector:
    - # atom 1
      - [ -0.15887376840958,  0.00000000000000 ]
      - [ -0.00000000000000, -0.00000000000000 ]
      - [  0.68842985174795, -0.02869607871532 ]
    - # atom 2
      - [  0.00715125089568, -0.67138242429311 ]
      - [  0.00000000000000,  0.00000000000000 ]
      - [ -0.15225406768953,  0.16128607761652 ]

- q-position: [    0.4300000,    0.0000000,    0.4300000 ]
  distance:    0.0257557
  band:
  - # 1
    frequency:    4.0530407226
    eigenvector:
    - # atom 1
      - [  0.70496931630927,  0.00000000000000 ]
      - [ -0.00000000000000, -0.00000000000000 ]
      - [  0.05084923550359, -0.02079947862683 ]
    - # atom 2
      - [  0.20167322459599,  0.04913363033395 ]
      - [ -0.00000000000000, -0.00000000000000 ]
      - [  0.01309698902443,  0.67582709751071 ]
  - # 2
    frequency:    4.0530407226
    eigenvector:
    - # atom 1
      - [ -0.05493872097571,  0.00000000000000 ]
      - [ -0.00000000000000,  0.00000000000000 ]
      - [  0.65249336262599, -0.26689726238120 ]
    - # atom 2
      - [  0.24374210307394,  0.63047885296840 ]
      - [ -0.00000000000000, -0.00000000000000 ]
      - [  0.16805952585504, -0.12182856363809 ]
  - # 3
    frequency:   10.9959182381
    eigenvector:
    - # atom 1
      - [ -0.00000000000000,  0.00000000000000 ]
      - [  0.67553236359777, -0.20894024440496 ]
      - [  0.00000000000000, -0.00000000000000 ]
    - # atom 2
      - [ -0.00000000000000, -0.00000000000000 ]
      - [  0.67553236359777, -0.20894024440496 ]
      - [  0.00000000000000,  0.00000000000000 ]
  - # 4
    frequency:   13.0542639214
    eigenvector:
    - # atom 1
      - [  0.00000000000000, -0.00000000000000 ]
      - [ -0.68447940541266, -0.17744842508722 ]
      - [ -0.00000000000000, -0.00000000000000 ]
    - # atom 2
      - [ -0.00000000000000,  0.00000000000000 ]
      - [  0.68447940541266,  0.17744842508722 ]
      - [  0.00000000000000, -0.00000000000000 ]
  - # 5
    frequency:   13.7097098055
    eigenvector:
    - # atom 1
      - [  0.53824460674973,  0.00000000000000 ]
      - [  0.00000000000000, -0.00000000000000 ]
      - [  0.32595632091108,  0.32256041319874 ]
    - # atom 2
      - [  0.17304449729228, -0.31495886256795 ]
      - [ -0.00000000000000,  0.00000000000000 ]
      - [ -0.08395497621815, -0.60316505105566 ]
  - # 6
    frequency:   13.7097098055
    eigenvector:
    - # atom 1
      - [ -0.45857686738956, -0.00000000000000 ]
      - [ -0.00000000000000, -0.00000000000000 ]
      - [  0.38258412982121,  0.37859825713297 ]
    - # atom 2
      - [  0.48393811168253, -0.36967610270061 ]
      - [  0.00000000000000,  0.00000000000000 ]
      - [ -0.09854032414774,  0.34559121468881 ]

- q-position: [    0.4200000,    0.0000000,    0.4200000 ]
  distance:    0.0294351
  band:
  - # 1
    frequency:    4.0529459959
    eigenvector:
    - # atom 1
      - [  0.70116185385920, -0.00000000000000 ]
      - [  0.00000000000000, -0.00000000000000 ]
      - [  0.08631559651104, -0.03035905946613 ]
    - # atom 2
      - [  0.23496162335560,  0.08250848324074 ]
      - [ -0.00000000000000, -0.00000000000000 ]
      - [  0.02535216744912,  0.66131887418177 ]
  - # 2
    frequency:    4.0529459959
    eigenvector:
    - # atom 1
      - [  0.09149893274090,  0.00000000000000 ]
      - [ -0.00000000000000,  0.00000000000000 ]
      - [ -0.66144163493162,  0.23264330827741 ]
    - # atom 2
      - [ -0.19550754347920, -0.63226749575329 ]
      - [ -0.00000000000000,  0.00000000000000 ]
      - [ -0.19427519202120,  0.15579397941420 ]
  - # 3
    frequency:   10.8173335801
    eigenvector:
    - # atom 1
      - [  0.00000000000000, -0.00000000000000 ]
      - [ -0.56111984078085,  0.43028423661816 ]
      - [  0.00000000000000,  0.00000000000000 ]
    - # atom 2
      - [  0.00000000000000,  0.00000000000000 ]
      - [ -0.56111984078085,  0.43028423661816 ]
      - [ -0.00000000000000, -0.00000000000000 ]
  - # 4
    frequency:   13.1710633408
    eigenvector:
    - # atom 1
      - [ -0.00000000000000,  0.00000000000000 ]
      - [  0.70396314370051,  0.06660249478282 ]
      - [  0.00000000000000,  0.00000000000000 ]
    - # atom 2
      - [  0.00000000000000, -0.00000000000000 ]
      - [ -0.70396314370051, -0.06660249478281 ]
      - [ -0.00000000000000,  0.00000000000000 ]
  - # 5
    frequency:   13.7155634981
    eigenvector:
    - # atom 1
      - [  0.68532867293526,  0.00000000000000 ]
      - [  0.00000000000000, -0.00000000000000 ]
      - [  0.11558242041217,  0.13025096600203 ]
    - # atom 2
      - [ -0.07678516857172, -0.11048443830522 ]
      - [  0.00000000000000,  0.00000000000000 ]
      - [ -0.03394826653476, -0.69335758593894 ]
  - # 6
    frequency:   13.7155634981
    eigenvector:
    - # atom 1
      - [ -0.17413962803681,  0.00000000000000 ]
      - [ -0.00000000000000, -0.00000000000000 ]
      - [  0.45487605370888,  0.51260429739658 ]
    - # atom 2
      - [  0.54114229615991, -0.43481288169346 ]
      - [  0.00000000000000,  0.00000000000000 ]
      - [ -0.13360382536136,  0.01589940467494 ]

- q-position: [    0.4100000,    0.0000000,    0.4100000 ]
  distance:    0.0331144
  band:
  - # 1
    frequency:    4.0517757814
    eigenvector:
    - # atom 1
      - [  0.05319618011839,  0.00000000000000 ]
      - [ -0.00000000000000,  0.00000000000000 ]
      - [ -0.40995358068273,  0.57367955175884 ]
    - # atom 2
      - [ -0.52410235154275, -0.38705304000738 ]
      - [  0.00000000000000, -0.00000000000000 ]
      - [ -0.13509952825837,  0.23927972499309 ]
  - # 2
    frequency:    4.0517757814
    eigenvector:
    - # atom 1
      - [  0.70510294739195,  0.00000000000000 ]
      - [ -0.00000000000000, -0.00000000000000 ]
      - [  0.03092876664158, -0.04328100014116 ]
    - # atom 2
      - [  0.27322878375374,  0.02920104547536 ]
      - [ -0.00000000000000, -0.00000000000000 ]
      - [  0.01019252417782,  0.65145179646884 ]
  - # 3
    frequency:   10.6343703162
    eigenvector:
    - # atom 1
      - [ -0.00000000000000,  0.00000000000000 ]
      - [ -0.52205743564272, -0.47692350947521 ]
      - [ -0.00000000000000,  0.00000000000000 ]
    - # atom 2
      - [ -0.00000000000000,  0.00000000000000 ]
      - [ -0.52205743564272, -0.47692350947521 ]
      - [  0.00000000000000, -0.00000000000000 ]
  - # 4
    frequency:   13.2840022716
    eigenvector:
    - # atom 1
      - [  0.00000000000000, -0.00000000000000 ]
      - [ -0.44727900382028, -0.54766914532548 ]
      - [ -0.00000000000000, -0.00000000000000 ]
    - # atom 2
      - [ -0.00000000000000,  0.00000000000000 ]
      - [  0.44727900382028,  0.54766914532548 ]
      - [  0.00000000000000, -0.00000000000000 ]
  - # 5
    frequency:   13.7226242178
    eigenvector:
    - # atom 1
      - [  0.64842652958117,  0.00000000000000 ]
      - [ -0.00000000000000, -0.00000000000000 ]
      - [  0.18393472768022,  0.21380143051094 ]
    - # atom 2
      - [ -0.01182969206261, -0.17365989435437 ]
      - [  0.00000000000000,  0.00000000000000 ]
      - [ -0.06061538698734, -0.68266248933049 ]
  - # 6
    frequency:   13.7226242178
    eigenvector:
    - # atom 1
      - [ -0.28203374928423,  0.00000000000000 ]
      - [ -0.00000000000000, -0.00000000000000 ]
      - [  0.42288611714673,  0.49155294342445 ]
    - # atom 2
      - [  0.55703791433641, -0.39926314814953 ]
      - [  0.00000000000000,  0.00000000000000 ]
      - [ -0.13936142437978,  0.10428851286842 ]

- q-position: [    0.4000000,    0.0000000,    0.4000000 ]
  distance:    0.0367938
  band:
  - # 1
    frequency:    4.0492224212
    eigenvector:
    - # atom 1
      - [  0.69679194560709,  0.00000000000000 ]
      - [ -0.00000000000000, -0.00000000000000 ]
      - [  0.09237383901761,  0.07712365656676 ]
    - # atom 2
      - [  0.18252477580099,  0.08600081737639 ]
      - [ -0.00000000000000, -0.00000000000000 ]
      - [  0.03371625046540,  0.67686910114434 ]
  - # 2
    frequency:    4.0492224212
    eigenvector:
    - # atom 1
      - [  0.12033696247239,  0.00000000000000 ]
      - [  0.00000000000000,  0.00000000000000 ]
      - [ -0.53487594908381, -0.44657220530908 ]
    - # atom 2
      - [  0.45968519109640, -0.49797398598326 ]
      - [  0.00000000000000,  0.00000000000000 ]
      - [ -0.19522855885411, -0.05096316491701 ]
  - # 3
    frequency:   10.4470068151
    eigenvector:
    - # atom 1
      - [  0.00000000000000,  0.00000000000000 ]
      - [  0.62903582522649,  0.32297667188456 ]
      - [  0.00000000000000, -0.00000000000000 ]
    - # atom 2
      - [  0.00000000000000, -0.00000000000000 ]
      - [  0.62903582522649,  0.32297667188456 ]
      - [ -0.00000000000000,  0.00000000000000 ]
  - # 4
    frequency:   13.3931137041
    eigenvector:
    - # atom 1
      - [ -0.00000000000000, -0.00000000000000 ]
      - [  0.59983189794387,  0.37443516689683 ]
      - [  0.00000000000000,  0.00000000000000 ]
    - # atom 2
      - [  0.00000000000000, -0.00000000000000 ]
      - [ -0.59983189794387, -0.37443516689683 ]
      - [ -0.00000000000000,  0.00000000000000 ]
  - # 5
    frequency:   13.7310057115
    eigenvector:
    - # atom 1
      - [  0.54045662315802,  0.00000000000000 ]
      - [  0.00000000000000,  0.00000000000000 ]
      - [ -0.39263069943972, -0.23183565804706 ]
    - # atom 2
      - [ -0.41310643107346,  0.36554246784567 ]
      - [ -0.00000000000000, -0.00000000000000 ]
      - [  0.14330935190635, -0.41855012897290 ]
  - # 6
    frequency:   13.7310057115
    eigenvector:
    - # atom 1
      - [ -0.45596780421937,  0.00000000000000 ]
      - [  0.00000000000000,  0.00000000000000 ]
      - [ -0.46538343278568, -0.27479378086846 ]
    - # atom 2
      - [ -0.08940805276956,  0.43327587159569 ]
      - [ -0.00000000000000, -0.00000000000000 ]
      - [  0.16986394144839,  0.52480897533157 ]

- q-position: [    0.3900000,    0.0000000,    0.3900000 ]
  distance:    0.0404732
  band:
  - # 1
    frequency:    4.0449827511
    eigenvector:
    - # atom 1
      - [ -0.06353960814362, -0.00000000000000 ]
      - [ -0.00000000000000, -0.00000000000000 ]
      - [  0.12232059427688, -0.69354191683899 ]
    - # atom 2
      - [  0.61022926016303,  0.11210917749469 ]
      - [ -0.00000000000000,  0.00000000000000 ]
      - [  0.04892708969184, -0.33564553066684 ]
  - # 2
    frequency:    4.0449827511
    eigenvector:
    - # atom 1
      - [  0.70424620566742,  0.00000000000000 ]
      - [  0.00000000000000, -0.00000000000000 ]
      - [  0.01103620092760, -0.06257382897130 ]
    - # atom 2
      - [  0.33904199054674,  0.01011489043177 ]
      - [ -0.00000000000000,  0.00000000000000 ]
      - [  0.00441437679267,  0.62042624937634 ]
  - # 3
    frequency:   10.2552269994
    eigenvector:
    - # atom 1
      - [ -0.00000000000000,  0.00000000000000 ]
      - [  0.47328528794074, -0.52535800766606 ]
      - [ -0.00000000000000, -0.00000000000000 ]
    - # atom 2
      - [  0.00000000000000, -0.00000000000000 ]
      - [  0.47328528794074, -0.52535800766606 ]
      - [ -0.00000000000000,  0.00000000000000 ]
  - # 4
    frequency:   13.4984324128
    eigenvector:
    - # atom 1
      - [  0.00000000000000, -0.00000000000000 ]
      - [ -0.67562181524632, -0.20865081539086 ]
      - [ -0.00000000000000, -0.00000000000001 ]
    - # atom 2
      - [ -0.00000000000001,  0.00000000000000 ]
      - [  0.67562181524632,  0.20865081539086 ]
      - [  0.00000000000000, -0.00000000000000 ]
  - # 5
    frequency:   13.7408147429
    eigenvector:
    - # atom 1
      - [  0.27301599659058,  0.00000000000000 ]
      - [ -0.00000000000001, -0.00000000000000 ]
      - [  0.25688434888678,  0.59956041972654 ]
    - # atom 2
      - [  0.44030482094869, -0.23543944693212 ]
      - [  0.00000000000000,  0.00000000000000 ]
      - [ -0.10275132861081, -0.49004295316467 ]
  - # 6
    frequency:   13.7408147429
    eigenvector:
    - # atom 1
      - [  0.65227468570048,  0.00000000000000 ]
      - [  0.00000000000001,  0.00000000000000 ]
      - [ -0.10752147531914, -0.25095192117125 ]
    - # atom 2
      - [ -0.49090601528866,  0.09854550030847 ]
      - [ -0.00000000000001, -0.00000000000000 ]
      - [  0.04300758100333, -0.49744388276328 ]

- q-position: [    0.3800000,    0.0000000,    0.3800000 ]
  distance:    0.0441526
  band:
  - # 1
    frequency:    4.0387634441
    eigenvector:
    - # atom 1
      - [ -0.01219933783317, -0.00000000000000 ]
      - [ -0.00000000000000,  0.00000000000000 ]
      - [  0.31250056093281, -0.63418812317254 ]
    - # atom 2
      - [  0.56591031069455,  0.28146781853261 ]
      - [  0.00000000000000,  0.00000000000000 ]
      - [  0.13576622449569, -0.28651163966980 ]
  - # 2
    frequency:    4.0387634441
    eigenvector:
    - # atom 1
      - [  0.70700153900570,  0.00000000000000 ]
      - [  0.00000000000000, -0.00000000000000 ]
      - [  0.00539220879383, -0.01094293963666 ]
    - # atom 2
      - [  0.31701387900105,  0.00485673767029 ]