mesh: [     1,     1,     1 ]
nqpoint: 1      
reciprocal_lattice:
- [  -0.18396912,   0.18396912,   0.18396912 ] # a*
- [   0.18396912,  -0.18396912,   0.18396912 ] # b*
- [   0.18396912,   0.18396912,  -0.18396912 ] # c*
natom:   2      
lattice:
- [     0.000000000000000,     2.717847358782217,     2.717847358782217 ] # a
- [     2.717847358782217,     0.000000000000000,     2.717847358782217 ] # b
- [     2.717847358782217,     2.717847358782217,     0.000000000000000 ] # c
points:
- symbol: Si # 1
  coordinates: [  0.250000000000000,  0.250000000000000,  0.250000000000000 ]
  mass: 28.085500
- symbol: Si # 2
  coordinates: [  0.000000000000000,  0.000000000000000,  0.000000000000000 ]
  mass: 28.085500

phonon:
- q-position: [    0.0000000,    0.0000000,    0.0000000 ]
  distance_from_gamma:  0.000000000
  weight: 1    
  band:
  - # 1
    frequency:    -0.0000001709
    eigenvector:
    - # atom 1
      - [ -0.62415628589574, -0.00000000000000 ]
      - [ -0.33229764048440,  0.00000000000000 ]
      - [  0.00268494047083,  0.00000000000000 ]
    - # atom 2
      - [ -0.62415628589574,  0.00000000000000 ]
      - [ -0.33229764048440,  0.00000000000000 ]
      - [  0.00268494047083,  0.00000000000000 ]
  - # 2
    frequency:    -0.0000001445
    eigenvector:
    - # atom 1
      - [  0.33229120274671,  0.00000000000000 ]
      - [ -0.62404517889775,  0.00000000000000 ]
      - [  0.01225443885361,  0.00000000000000 ]
    - # atom 2
      - [  0.33229120274671,  0.00000000000000 ]
      - [ -0.62404517889775,  0.00000000000000 ]
      - [  0.01225443885361,  0.00000000000000 ]
  - # 3
    frequency:     0.0000002065
    eigenvector:
    - # atom 1
      - [ -0.00338929992447,  0.00000000000000 ]
      - [  0.01207861014235,  0.00000000000000 ]
      - [  0.70699548783783,  0.00000000000000 ]
    - # atom 2
      - [ -0.00338929992447,  0.00000000000000 ]
      - [  0.01207861014235,  0.00000000000000 ]
      - [  0.70699548783783,  0.00000000000000 ]
  - # 4
    frequency:    15.2369331161
    eigenvector:
    - # atom 1
      - [  0.00000000000000,  0.00000000000000 ]
      - [  0.11656160367687,  0.00000000000000 ]
      - [  0.69743343234195,  0.00000000000000 ]
    - # atom 2
      - [ -0.00000000000000,  0.00000000000000 ]
      - [ -0.11656160367687,  0.00000000000000 ]
      - [ -0.69743343234195,  0.00000000000000 ]
  - # 5
    frequency:    15.2369331161
    eigenvector:
    - # atom 1
      - [  0.00000000000000,  0.00000000000000 ]
      - [  0.69743343234195,  0.00000000000000 ]
      - [ -0.11656160367687,  0.00000000000000 ]
    - # atom 2
      - [  0.00000000000000,  0.00000000000000 ]
      - [ -0.69743343234195,  0.00000000000000 ]
      - [  0.11656160367687,  0.00000000000000 ]
  - # 6
    frequency:    15.2369331161
    eigenvector:
    - # atom 1
      - [  0.70710678118655,  0.00000000000000 ]
      - [  0.00000000000000,  0.00000000000000 ]
      - [ -0.00000000000000,  0.00000000000000 ]
    - # atom 2
      - [ -0.70710678118655,  0.00000000000000 ]
      - [ -0.00000000000000,  0.00000000000000 ]
      - [  0.00000000000000,  0.00000000000000 ]
