q-position: [    0.0000000,    0.0000000,    0.0000000 ]
point_group: mmm
transformation_matrix:
- [  0.0000000,  1.0000000,  0.0000000 ]
- [  0.0000000,  0.0000000,  1.0000000 ]
- [  1.0000000,  0.0000000,  0.0000000 ]
rotations:
- matrix:
  - [  1,  0,  0 ]
  - [  0,  1,  0 ]
  - [  0,  0,  1 ]
  symbol: E
- matrix:
  - [ -1,  0,  0 ]
  - [  0, -1,  0 ]
  - [  0,  0, -1 ]
  symbol: i
- matrix:
  - [ -1,  0,  0 ]
  - [  0, -1,  0 ]
  - [  0,  0,  1 ]
  symbol: C2
- matrix:
  - [  1,  0,  0 ]
  - [  0,  1,  0 ]
  - [  0,  0, -1 ]
  symbol: sgxy
- matrix:
  - [  1,  0,  0 ]
  - [  0, -1,  0 ]
  - [  0,  0, -1 ]
  symbol: C2x
- matrix:
  - [ -1,  0,  0 ]
  - [  0,  1,  0 ]
  - [  0,  0,  1 ]
  symbol: sgyz
- matrix:
  - [ -1,  0,  0 ]
  - [  0,  1,  0 ]
  - [  0,  0, -1 ]
  symbol: C2y
- matrix:
  - [  1,  0,  0 ]
  - [  0, -1,  0 ]
  - [  0,  0,  1 ]
  symbol: sgxz
normal_modes:
- band_indices: [ 1, 2, 3 ]
  frequency: -0.0000000953  
  ir_label: None
  characters: [ [  3,   0.0 ], [  3, 180.0 ], [  1, 180.0 ], [  1,   0.0 ], [  1, 180.0 ], [  1,   0.0 ], [  1, 180.0 ], [  1,   0.0 ] ]
- band_indices: [ 4 ]
  frequency: 1.0354953698   
  ir_label: Ag
  characters: [ [  1,   0.0 ], [  1,   0.0 ], [  1,   0.0 ], [  1,   0.0 ], [  1,   0.0 ], [  1,   0.0 ], [  1,   0.0 ], [  1,   0.0 ] ]
- band_indices: [ 5 ]
  frequency: 1.1199785854   
  ir_label: B3g
  characters: [ [  1,   0.0 ], [  1,   0.0 ], [  1, 180.0 ], [  1, 180.0 ], [  1,   0.0 ], [  1,   0.0 ], [  1, 180.0 ], [  1, 180.0 ] ]
- band_indices: [ 6 ]
  frequency: 1.3094261793   
  ir_label: Au
  characters: [ [  1,   0.0 ], [  1, 180.0 ], [  1,   0.0 ], [  1, 180.0 ], [  1,   0.0 ], [  1, 180.0 ], [  1,   0.0 ], [  1, 180.0 ] ]
- band_indices: [ 7 ]
  frequency: 1.5040321987   
  ir_label: B3u
  characters: [ [  1,   0.0 ], [  1, 180.0 ], [  1, 180.0 ], [  1,   0.0 ], [  1,   0.0 ], [  1, 180.0 ], [  1, 180.0 ], [  1,   0.0 ] ]
- band_indices: [ 8 ]
  frequency: 1.6351544591   
  ir_label: B1g
  characters: [ [  1,   0.0 ], [  1,   0.0 ], [  1,   0.0 ], [  1,   0.0 ], [  1, 180.0 ], [  1, 180.0 ], [  1, 180.0 ], [  1, 180.0 ] ]
- band_indices: [ 9 ]
  frequency: 1.9315098458   
  ir_label: B2g
  characters: [ [  1,   0.0 ], [  1,   0.0 ], [  1, 180.0 ], [  1, 180.0 ], [  1, 180.0 ], [  1, 180.0 ], [  1,   0.0 ], [  1,   0.0 ] ]
- band_indices: [ 10 ]
  frequency: 2.0242789408   
  ir_label: Ag
  characters: [ [  1,   0.0 ], [  1,   0.0 ], [  1,   0.0 ], [  1,   0.0 ], [  1,   0.0 ], [  1,   0.0 ], [  1,   0.0 ], [  1,   0.0 ] ]
- band_indices: [ 11 ]
  frequency: 2.0790913269   
  ir_label: B2g
  characters: [ [  1,   0.0 ], [  1,   0.0 ], [  1, 180.0 ], [  1, 180.0 ], [  1, 180.0 ], [  1, 180.0 ], [  1,   0.0 ], [  1,   0.0 ] ]
- band_indices: [ 12 ]
  frequency: 2.3236690203   
  ir_label: B1u
  characters: [ [  1,   0.0 ], [  1, 180.0 ], [  1,   0.0 ], [  1, 180.0 ], [  1, 180.0 ], [  1,   0.0 ], [  1, 180.0 ], [  1,   0.0 ] ]
- band_indices: [ 13 ]
  frequency: 2.8524574787   
  ir_label: B2u
  characters: [ [  1,   0.0 ], [  1, 180.0 ], [  1, 180.0 ], [  1,   0.0 ], [  1, 180.0 ], [  1,   0.0 ], [  1,   0.0 ], [  1, 180.0 ] ]
- band_indices: [ 14 ]
  frequency: 3.3515571566   
  ir_label: B3g
  characters: [ [  1,   0.0 ], [  1,   0.0 ], [  1, 180.0 ], [  1, 180.0 ], [  1,   0.0 ], [  1,   0.0 ], [  1, 180.0 ], [  1, 180.0 ] ]
- band_indices: [ 15 ]
  frequency: 3.6668416235   
  ir_label: B3u
  characters: [ [  1,   0.0 ], [  1, 180.0 ], [  1, 180.0 ], [  1,   0.0 ], [  1,   0.0 ], [  1, 180.0 ], [  1, 180.0 ], [  1,   0.0 ] ]
- band_indices: [ 16 ]
  frequency: 3.6694887065   
  ir_label: B1u
  characters: [ [  1,   0.0 ], [  1, 180.0 ], [  1,   0.0 ], [  1, 180.0 ], [  1, 180.0 ], [  1,   0.0 ], [  1, 180.0 ], [  1,   0.0 ] ]
- band_indices: [ 17 ]
  frequency: 3.8034904179   
  ir_label: Au
  characters: [ [  1,   0.0 ], [  1, 180.0 ], [  1,   0.0 ], [  1, 180.0 ], [  1,   0.0 ], [  1, 180.0 ], [  1,   0.0 ], [  1, 180.0 ] ]
- band_indices: [ 18 ]
  frequency: 3.9211186641   
  ir_label: Ag
  characters: [ [  1,   0.0 ], [  1,   0.0 ], [  1,   0.0 ], [  1,   0.0 ], [  1,   0.0 ], [  1,   0.0 ], [  1,   0.0 ], [  1,   0.0 ] ]
- band_indices: [ 19 ]
  frequency: 4.1180102261   
  ir_label: B1g
  characters: [ [  1,   0.0 ], [  1,   0.0 ], [  1,   0.0 ], [  1,   0.0 ], [  1, 180.0 ], [  1, 180.0 ], [  1, 180.0 ], [  1, 180.0 ] ]
- band_indices: [ 20 ]
  frequency: 4.2971598759   
  ir_label: B3u
  characters: [ [  1,   0.0 ], [  1, 180.0 ], [  1, 180.0 ], [  1,   0.0 ], [  1,   0.0 ], [  1, 180.0 ], [  1, 180.0 ], [  1,   0.0 ] ]
- band_indices: [ 21 ]
  frequency: 4.3765116514   
  ir_label: B2g
  characters: [ [  1,   0.0 ], [  1,   0.0 ], [  1, 180.0 ], [  1, 180.0 ], [  1, 180.0 ], [  1, 180.0 ], [  1,   0.0 ], [  1,   0.0 ] ]
- band_indices: [ 22 ]
  frequency: 4.4984346349   
  ir_label: B1u
  characters: [ [  1,   0.0 ], [  1, 180.0 ], [  1,   0.0 ], [  1, 180.0 ], [  1, 180.0 ], [  1,   0.0 ], [  1, 180.0 ], [  1,   0.0 ] ]
- band_indices: [ 23 ]
  frequency: 4.6554181955   
  ir_label: Ag
  characters: [ [  1,   0.0 ], [  1,   0.0 ], [  1,   0.0 ], [  1,   0.0 ], [  1,   0.0 ], [  1,   0.0 ], [  1,   0.0 ], [  1,   0.0 ] ]
- band_indices: [ 24 ]
  frequency: 5.4750365360   
  ir_label: B2g
  characters: [ [  1,   0.0 ], [  1,   0.0 ], [  1, 180.0 ], [  1, 180.0 ], [  1, 180.0 ], [  1, 180.0 ], [  1,   0.0 ], [  1,   0.0 ] ]
