mesh: [     1,     1,     1 ]
nqpoint: 1      
reciprocal_lattice:
- [   0.23095291,   0.00000000,  -0.00000000 ] # a*
- [   0.00000000,   0.08813647,   0.00000000 ] # b*
- [   0.00000000,   0.00000000,   0.24273122 ] # c*
natom:   8      
lattice:
- [     4.329886974695666,     0.000000000000000,     0.000000000000000 ] # a
- [     0.000000000000000,    11.346041555983788,     0.000000000000000 ] # b
- [     0.000000000000000,     0.000000000000000,     4.119783254563575 ] # c
points:
- symbol: Se # 1
  coordinates: [  0.472912338506834,  0.856893349000924,  0.250000000000000 ]
  mass: 78.960000
- symbol: Se # 2
  coordinates: [  0.527087691493169,  0.143106665999082,  0.750000000000000 ]
  mass: 78.960000
- symbol: Se # 3
  coordinates: [  0.972912308506831,  0.643106650999076,  0.750000000000000 ]
  mass: 78.960000
- symbol: Se # 4
  coordinates: [  0.027087661493166,  0.356893349000924,  0.250000000000000 ]
  mass: 78.960000
- symbol: Sn # 5
  coordinates: [  0.097063625598221,  0.115177112359937,  0.250000000000000 ]
  mass: 118.710000
- symbol: Sn # 6
  coordinates: [  0.902936389401776,  0.884822857640068,  0.750000000000000 ]
  mass: 118.710000
- symbol: Sn # 7
  coordinates: [  0.597063610598224,  0.384822887640062,  0.750000000000000 ]
  mass: 118.710000
- symbol: Sn # 8
  coordinates: [  0.402936389401777,  0.615177142359932,  0.250000000000000 ]
  mass: 118.710000

phonon:
- q-position: [    0.0000000,    0.0000000,    0.0000000 ]
  distance_from_gamma:  0.000000000
  weight: 1    
  band:
  - # 1
    frequency:    -0.0000000953
    eigenvector:
    - # atom 1
      - [ -0.31006218016548,  0.00000000000000 ]
      - [  0.00737021243954,  0.00000000000000 ]
      - [  0.06058492478425,  0.00000000000000 ]
    - # atom 2
      - [ -0.31006218016548,  0.00000000000000 ]
      - [  0.00737021243954,  0.00000000000000 ]
      - [  0.06058492478425,  0.00000000000000 ]
    - # atom 3
      - [ -0.31006218016548,  0.00000000000000 ]
      - [  0.00737021243954,  0.00000000000000 ]
      - [  0.06058492478425,  0.00000000000000 ]
    - # atom 4
      - [ -0.31006218016548,  0.00000000000000 ]
      - [  0.00737021243954,  0.00000000000000 ]
      - [  0.06058492478425,  0.00000000000000 ]
    - # atom 5
      - [ -0.38017966096952,  0.00000000000000 ]
      - [  0.00903691274132,  0.00000000000000 ]
      - [  0.07428560346201,  0.00000000000000 ]
    - # atom 6
      - [ -0.38017966096952,  0.00000000000000 ]
      - [  0.00903691274132,  0.00000000000000 ]
      - [  0.07428560346201,  0.00000000000000 ]
    - # atom 7
      - [ -0.38017966096952,  0.00000000000000 ]
      - [  0.00903691274132,  0.00000000000000 ]
      - [  0.07428560346201,  0.00000000000000 ]
    - # atom 8
      - [ -0.38017966096952,  0.00000000000000 ]
      - [  0.00903691274132,  0.00000000000000 ]
      - [  0.07428560346201,  0.00000000000000 ]
  - # 2
    frequency:     0.0000000126
    eigenvector:
    - # atom 1
      - [  0.06087706773833, -0.00000000000000 ]
      - [  0.01504105116819,  0.00000000000000 ]
      - [  0.30972755465865,  0.00000000000000 ]
    - # atom 2
      - [  0.06087706773833,  0.00000000000000 ]
      - [  0.01504105116819,  0.00000000000000 ]
      - [  0.30972755465865,  0.00000000000000 ]
    - # atom 3
      - [  0.06087706773833,  0.00000000000000 ]
      - [  0.01504105116819,  0.00000000000000 ]
      - [  0.30972755465865,  0.00000000000000 ]
    - # atom 4
      - [  0.06087706773833,  0.00000000000000 ]
      - [  0.01504105116819,  0.00000000000000 ]
      - [  0.30972755465865,  0.00000000000000 ]
    - # atom 5
      - [  0.07464381164199,  0.00000000000000 ]
      - [  0.01844243541955,  0.00000000000000 ]
      - [  0.37976936322966,  0.00000000000000 ]
    - # atom 6
      - [  0.07464381164199,  0.00000000000000 ]
      - [  0.01844243541955,  0.00000000000000 ]
      - [  0.37976936322966,  0.00000000000000 ]
    - # atom 7
      - [  0.07464381164199,  0.00000000000000 ]
      - [  0.01844243541955,  0.00000000000000 ]
      - [  0.37976936322966,  0.00000000000000 ]
    - # atom 8
      - [  0.07464381164199,  0.00000000000000 ]
      - [  0.01844243541955,  0.00000000000000 ]
      - [  0.37976936322966,  0.00000000000000 ]
  - # 3
    frequency:     0.0000000553
    eigenvector:
    - # atom 1
      - [  0.00434001913593,  0.00000000000000 ]
      - [  0.31556751331504,  0.00000000000000 ]
      - [ -0.01617768480184,  0.00000000000000 ]
    - # atom 2
      - [  0.00434001913593,  0.00000000000000 ]
      - [  0.31556751331504,  0.00000000000000 ]
      - [ -0.01617768480184,  0.00000000000000 ]
    - # atom 3
      - [  0.00434001913593,  0.00000000000000 ]
      - [  0.31556751331504,  0.00000000000000 ]
      - [ -0.01617768480184,  0.00000000000000 ]
    - # atom 4
      - [  0.00434001913593,  0.00000000000000 ]
      - [  0.31556751331504,  0.00000000000000 ]
      - [ -0.01617768480184,  0.00000000000000 ]
    - # atom 5
      - [  0.00532147133462,  0.00000000000000 ]
      - [  0.38692997050166,  0.00000000000000 ]
      - [ -0.01983610745417,  0.00000000000000 ]
    - # atom 6
      - [  0.00532147133462,  0.00000000000000 ]
      - [  0.38692997050166,  0.00000000000000 ]
      - [ -0.01983610745417,  0.00000000000000 ]
    - # atom 7
      - [  0.00532147133462,  0.00000000000000 ]
      - [  0.38692997050166,  0.00000000000000 ]
      - [ -0.01983610745417,  0.00000000000000 ]
    - # atom 8
      - [  0.00532147133462,  0.00000000000000 ]
      - [  0.38692997050166,  0.00000000000000 ]
      - [ -0.01983610745417,  0.00000000000000 ]
  - # 4
    frequency:     1.0354953698
    eigenvector:
    - # atom 1
      - [ -0.23876214517855,  0.00000000000000 ]
      - [ -0.02059742052556,  0.00000000000000 ]
      - [ -0.00000000000000,  0.00000000000000 ]
    - # atom 2
      - [  0.23876214517856,  0.00000000000000 ]
      - [  0.02059742052556,  0.00000000000000 ]
      - [ -0.00000000000000,  0.00000000000000 ]
    - # atom 3
      - [ -0.23876214517856,  0.00000000000000 ]
      - [  0.02059742052556,  0.00000000000000 ]
      - [  0.00000000000000,  0.00000000000000 ]
    - # atom 4
      - [  0.23876214517855,  0.00000000000000 ]
      - [ -0.02059742052556,  0.00000000000000 ]
      - [  0.00000000000000,  0.00000000000000 ]
    - # atom 5
      - [  0.42558121922751,  0.00000000000000 ]
      - [ -0.10700004737500,  0.00000000000000 ]
      - [ -0.00000000000000,  0.00000000000000 ]
    - # atom 6
      - [ -0.42558121922751,  0.00000000000000 ]
      - [  0.10700004737500,  0.00000000000000 ]
      - [ -0.00000000000000,  0.00000000000000 ]
    - # atom 7
      - [  0.42558121922751,  0.00000000000000 ]
      - [  0.10700004737500,  0.00000000000000 ]
      - [  0.00000000000000,  0.00000000000000 ]
    - # atom 8
      - [ -0.42558121922751,  0.00000000000000 ]
      - [ -0.10700004737500,  0.00000000000000 ]
      - [  0.00000000000000,  0.00000000000000 ]
  - # 5
    frequency:     1.1199785854
    eigenvector:
    - # atom 1
      - [ -0.00000000000000,  0.00000000000000 ]
      - [  0.00000000000000,  0.00000000000000 ]
      - [  0.31467101300372,  0.00000000000000 ]
    - # atom 2
      - [ -0.00000000000000,  0.00000000000000 ]
      - [  0.00000000000000,  0.00000000000000 ]
      - [ -0.31467101300372,  0.00000000000000 ]
    - # atom 3
      - [  0.00000000000000,  0.00000000000000 ]
      - [  0.00000000000000,  0.00000000000000 ]
      - [  0.31467101300371,  0.00000000000000 ]
    - # atom 4
      - [ -0.00000000000000,  0.00000000000000 ]
      - [  0.00000000000000,  0.00000000000000 ]
      - [ -0.31467101300372,  0.00000000000000 ]
    - # atom 5
      - [ -0.00000000000000,  0.00000000000000 ]
      - [  0.00000000000000,  0.00000000000000 ]
      - [ -0.38856422065756,  0.00000000000000 ]
    - # atom 6
      - [ -0.00000000000000,  0.00000000000000 ]
      - [  0.00000000000000,  0.00000000000000 ]
      - [  0.38856422065756,  0.00000000000000 ]
    - # atom 7
      - [ -0.00000000000000,  0.00000000000000 ]
      - [  0.00000000000000,  0.00000000000000 ]
      - [ -0.38856422065756,  0.00000000000000 ]
    - # atom 8
      - [  0.00000000000000,  0.00000000000000 ]
      - [  0.00000000000000,  0.00000000000000 ]
      - [  0.38856422065756,  0.00000000000000 ]
  - # 6
    frequency:     1.3094261793
    eigenvector:
    - # atom 1
      - [  0.00000000000000,  0.00000000000000 ]
      - [ -0.00000000000000,  0.00000000000000 ]
      - [ -0.20149483375815,  0.00000000000000 ]
    - # atom 2
      - [ -0.00000000000000,  0.00000000000000 ]
      - [  0.00000000000000,  0.00000000000000 ]
      - [ -0.20149483375815,  0.00000000000000 ]
    - # atom 3
      - [  0.00000000000000,  0.00000000000000 ]
      - [ -0.00000000000000,  0.00000000000000 ]
      - [  0.20149483375815,  0.00000000000000 ]
    - # atom 4
      - [ -0.00000000000000,  0.00000000000000 ]
      - [  0.00000000000000,  0.00000000000000 ]
      - [  0.20149483375815,  0.00000000000000 ]
    - # atom 5
      - [ -0.00000000000000,  0.00000000000000 ]
      - [ -0.00000000000000,  0.00000000000000 ]
      - [ -0.45760226394630,  0.00000000000000 ]
    - # atom 6
      - [  0.00000000000000,  0.00000000000000 ]
      - [ -0.00000000000000,  0.00000000000000 ]
      - [ -0.45760226394630,  0.00000000000000 ]
    - # atom 7
      - [ -0.00000000000000,  0.00000000000000 ]
      - [ -0.00000000000000,  0.00000000000000 ]
      - [  0.45760226394630,  0.00000000000000 ]
    - # atom 8
      - [  0.00000000000000,  0.00000000000000 ]
      - [  0.00000000000000,  0.00000000000000 ]
      - [  0.45760226394630,  0.00000000000000 ]
  - # 7
    frequency:     1.5040321987
    eigenvector:
    - # atom 1
      - [  0.23572104827690,  0.00000000000000 ]
      - [  0.01894230933716,  0.00000000000000 ]
      - [ -0.00000000000000,  0.00000000000000 ]
    - # atom 2
      - [  0.23572104827690,  0.00000000000000 ]
      - [  0.01894230933717,  0.00000000000000 ]
      - [  0.00000000000000,  0.00000000000000 ]
    - # atom 3
      - [ -0.23572104827690,  0.00000000000000 ]
      - [  0.01894230933716,  0.00000000000000 ]
      - [  0.00000000000000,  0.00000000000000 ]
    - # atom 4
      - [ -0.23572104827690,  0.00000000000000 ]
      - [  0.01894230933717,  0.00000000000000 ]
      - [ -0.00000000000000,  0.00000000000000 ]
    - # atom 5
      - [  0.44027049979854,  0.00000000000000 ]
      - [ -0.01544873209543,  0.00000000000000 ]
      - [  0.00000000000000,  0.00000000000000 ]
    - # atom 6
      - [  0.44027049979854,  0.00000000000000 ]
      - [ -0.01544873209543,  0.00000000000000 ]
      - [ -0.00000000000000,  0.00000000000000 ]
    - # atom 7
      - [ -0.44027049979854,  0.00000000000000 ]
      - [ -0.01544873209543,  0.00000000000000 ]
      - [ -0.00000000000000,  0.00000000000000 ]
    - # atom 8
      - [ -0.44027049979854,  0.00000000000000 ]
      - [ -0.01544873209543,  0.00000000000000 ]
      - [  0.00000000000000,  0.00000000000000 ]
  - # 8
    frequency:     1.6351544591
    eigenvector:
    - # atom 1
      - [  0.00000000000000,  0.00000000000000 ]
      - [ -0.00000000000000,  0.00000000000000 ]
      - [  0.21664874682643,  0.00000000000000 ]
    - # atom 2
      - [  0.00000000000000,  0.00000000000000 ]
      - [ -0.00000000000000,  0.00000000000000 ]
      - [ -0.21664874682643,  0.00000000000000 ]
    - # atom 3
      - [ -0.00000000000000,  0.00000000000000 ]
      - [  0.00000000000000,  0.00000000000000 ]
      - [ -0.21664874682643,  0.00000000000000 ]
    - # atom 4
      - [ -0.00000000000000,  0.00000000000000 ]
      - [ -0.00000000000000,  0.00000000000000 ]
      - [  0.21664874682643,  0.00000000000000 ]
    - # atom 5
      - [  0.00000000000000,  0.00000000000000 ]
      - [ -0.00000000000000,  0.00000000000000 ]
      - [ -0.45062547697455,  0.00000000000000 ]
    - # atom 6
      - [  0.00000000000000,  0.00000000000000 ]
      - [  0.00000000000000,  0.00000000000000 ]
      - [  0.45062547697454,  0.00000000000000 ]
    - # atom 7
      - [ -0.00000000000000,  0.00000000000000 ]
      - [ -0.00000000000000,  0.00000000000000 ]
      - [  0.45062547697455,  0.00000000000000 ]
    - # atom 8
      - [ -0.00000000000000,  0.00000000000000 ]
      - [ -0.00000000000000,  0.00000000000000 ]
      - [ -0.45062547697454,  0.00000000000000 ]
  - # 9
    frequency:     1.9315098458
    eigenvector:
    - # atom 1
      - [  0.21083659330985,  0.00000000000000 ]
      - [ -0.07399979512997,  0.00000000000000 ]
      - [  0.00000000000000,  0.00000000000000 ]
    - # atom 2
      - [ -0.21083659330985,  0.00000000000000 ]
      - [  0.07399979512997,  0.00000000000000 ]
      - [ -0.00000000000000,  0.00000000000000 ]
    - # atom 3
      - [ -0.21083659330985,  0.00000000000000 ]
      - [ -0.07399979512997,  0.00000000000000 ]
      - [ -0.00000000000000,  0.00000000000000 ]
    - # atom 4
      - [  0.21083659330985,  0.00000000000000 ]
      - [  0.07399979512997,  0.00000000000000 ]
      - [  0.00000000000000,  0.00000000000000 ]
    - # atom 5
      - [ -0.43291713569698,  0.00000000000000 ]
      - [  0.11249317695818,  0.00000000000000 ]
      - [  0.00000000000000,  0.00000000000000 ]
    - # atom 6
      - [  0.43291713569698,  0.00000000000000 ]
      - [ -0.11249317695818,  0.00000000000000 ]
      - [  0.00000000000000,  0.00000000000000 ]
    - # atom 7
      - [  0.43291713569698,  0.00000000000000 ]
      - [  0.11249317695818,  0.00000000000000 ]
      - [  0.00000000000000,  0.00000000000000 ]
    - # atom 8
      - [ -0.43291713569698,  0.00000000000000 ]
      - [ -0.11249317695819,  0.00000000000000 ]
      - [ -0.00000000000000,  0.00000000000000 ]
  - # 10
    frequency:     2.0242789408
    eigenvector:
    - # atom 1
      - [ -0.20704296621021,  0.00000000000000 ]
      - [  0.24902024220126,  0.00000000000000 ]
      - [ -0.00000000000000,  0.00000000000000 ]
    - # atom 2
      - [  0.20704296621021,  0.00000000000000 ]
      - [ -0.24902024220126,  0.00000000000000 ]
      - [ -0.00000000000000,  0.00000000000000 ]
    - # atom 3
      - [ -0.20704296621021,  0.00000000000000 ]
      - [ -0.24902024220126,  0.00000000000000 ]
      - [ -0.00000000000000,  0.00000000000000 ]
    - # atom 4
      - [  0.20704296621021,  0.00000000000000 ]
      - [  0.24902024220126,  0.00000000000000 ]
      - [ -0.00000000000000,  0.00000000000000 ]
    - # atom 5
      - [ -0.00834876762436,  0.00000000000000 ]
      - [  0.38085748935272,  0.00000000000000 ]
      - [ -0.00000000000000,  0.00000000000000 ]
    - # atom 6
      - [  0.00834876762435,  0.00000000000000 ]
      - [ -0.38085748935272,  0.00000000000000 ]
      - [  0.00000000000000,  0.00000000000000 ]
    - # atom 7
      - [ -0.00834876762435,  0.00000000000000 ]
      - [ -0.38085748935272,  0.00000000000000 ]
      - [  0.00000000000000,  0.00000000000000 ]
    - # atom 8
      - [  0.00834876762435,  0.00000000000000 ]
      - [  0.38085748935272,  0.00000000000000 ]
      - [  0.00000000000000,  0.00000000000000 ]
  - # 11
    frequency:     2.0790913269
    eigenvector:
    - # atom 1
      - [  0.09767864722323,  0.00000000000000 ]
      - [  0.28558783785977,  0.00000000000000 ]
      - [ -0.00000000000000,  0.00000000000000 ]
    - # atom 2
      - [ -0.09767864722323,  0.00000000000000 ]
      - [ -0.28558783785977,  0.00000000000000 ]
      - [ -0.00000000000000,  0.00000000000000 ]
    - # atom 3
      - [ -0.09767864722323,  0.00000000000000 ]
      - [  0.28558783785977,  0.00000000000000 ]
      - [ -0.00000000000000,  0.00000000000000 ]
    - # atom 4
      - [  0.09767864722323,  0.00000000000000 ]
      - [ -0.28558783785977,  0.00000000000000 ]
      - [  0.00000000000000,  0.00000000000000 ]
    - # atom 5
      - [ -0.10141825609214,  0.00000000000000 ]
      - [ -0.38550331525741,  0.00000000000000 ]
      - [  0.00000000000000,  0.00000000000000 ]
    - # atom 6
      - [  0.10141825609214,  0.00000000000000 ]
      - [  0.38550331525741,  0.00000000000000 ]
      - [ -0.00000000000000,  0.00000000000000 ]
    - # atom 7
      - [  0.10141825609214,  0.00000000000000 ]
      - [ -0.38550331525741,  0.00000000000000 ]
      - [  0.00000000000000,  0.00000000000000 ]
    - # atom 8
      - [ -0.10141825609214,  0.00000000000000 ]
      - [  0.38550331525741,  0.00000000000000 ]
      - [  0.00000000000000,  0.00000000000000 ]
  - # 12
    frequency:     2.3236690203
    eigenvector:
    - # atom 1
      - [ -0.11481318703978,  0.00000000000000 ]
      - [  0.26866755656285,  0.00000000000000 ]
      - [ -0.00000000000000,  0.00000000000000 ]
    - # atom 2
      - [ -0.11481318703978,  0.00000000000000 ]
      - [  0.26866755656285,  0.00000000000000 ]
      - [ -0.00000000000000,  0.00000000000000 ]
    - # atom 3
      - [ -0.11481318703978,  0.00000000000000 ]
      - [ -0.26866755656285,  0.00000000000000 ]
      - [ -0.00000000000000,  0.00000000000000 ]
    - # atom 4
      - [ -0.11481318703978,  0.00000000000000 ]
      - [ -0.26866755656285,  0.00000000000000 ]
      - [  0.00000000000000,  0.00000000000000 ]
    - # atom 5
      - [  0.09363790528540,  0.00000000000000 ]
      - [ -0.39480073306173,  0.00000000000000 ]
      - [ -0.00000000000000,  0.00000000000000 ]
    - # atom 6
      - [  0.09363790528541,  0.00000000000000 ]
      - [ -0.39480073306173,  0.00000000000000 ]
      - [  0.00000000000000,  0.00000000000000 ]
    - # atom 7
      - [  0.09363790528541,  0.00000000000000 ]
      - [  0.39480073306173,  0.00000000000000 ]
      - [ -0.00000000000000,  0.00000000000000 ]
    - # atom 8
      - [  0.09363790528541,  0.00000000000000 ]
      - [  0.39480073306173,  0.00000000000000 ]
      - [ -0.00000000000000,  0.00000000000000 ]
  - # 13
    frequency:     2.8524574787
    eigenvector:
    - # atom 1
      - [ -0.00000000000000,  0.00000000000000 ]
      - [  0.00000000000000,  0.00000000000000 ]
      - [  0.38747463309036,  0.00000000000000 ]
    - # atom 2
      - [ -0.00000000000000,  0.00000000000000 ]
      - [ -0.00000000000000,  0.00000000000000 ]
      - [  0.38747463309036,  0.00000000000000 ]
    - # atom 3
      - [ -0.00000000000000,  0.00000000000000 ]
      - [ -0.00000000000000,  0.00000000000000 ]
      - [  0.38747463309036,  0.00000000000000 ]
    - # atom 4
      - [  0.00000000000000,  0.00000000000000 ]
      - [  0.00000000000000,  0.00000000000000 ]
      - [  0.38747463309036,  0.00000000000000 ]
    - # atom 5
      - [ -0.00000000000000,  0.00000000000000 ]
      - [  0.00000000000000,  0.00000000000000 ]
      - [ -0.31601172242733,  0.00000000000000 ]
    - # atom 6
      - [  0.00000000000000,  0.00000000000000 ]
      - [ -0.00000000000000,  0.00000000000000 ]
      - [ -0.31601172242733,  0.00000000000000 ]
    - # atom 7
      - [  0.00000000000000,  0.00000000000000 ]
      - [ -0.00000000000000,  0.00000000000000 ]
      - [ -0.31601172242733,  0.00000000000000 ]
    - # atom 8
      - [ -0.00000000000000,  0.00000000000000 ]
      - [  0.00000000000000,  0.00000000000000 ]
      - [ -0.31601172242733,  0.00000000000000 ]
  - # 14
    frequency:     3.3515571566
    eigenvector:
    - # atom 1
      - [  0.00000000000000,  0.00000000000000 ]
      - [  0.00000000000000,  0.00000000000000 ]
      - [ -0.38856422065756,  0.00000000000000 ]
    - # atom 2
      - [  0.00000000000000,  0.00000000000000 ]
      - [  0.00000000000000,  0.00000000000000 ]
      - [  0.38856422065756,  0.00000000000000 ]
    - # atom 3
      - [  0.00000000000000,  0.00000000000000 ]
      - [  0.00000000000000,  0.00000000000000 ]
      - [ -0.38856422065756,  0.00000000000000 ]
    - # atom 4
      - [  0.00000000000000,  0.00000000000000 ]
      - [  0.00000000000000,  0.00000000000000 ]
      - [  0.38856422065756,  0.00000000000000 ]
    - # atom 5
      - [ -0.00000000000000,  0.00000000000000 ]
      - [ -0.00000000000000,  0.00000000000000 ]
      - [ -0.31467101300372,  0.00000000000000 ]
    - # atom 6
      - [ -0.00000000000000,  0.00000000000000 ]
      - [ -0.00000000000000,  0.00000000000000 ]
      - [  0.31467101300372,  0.00000000000000 ]
    - # atom 7
      - [ -0.00000000000000,  0.00000000000000 ]
      - [ -0.00000000000000,  0.00000000000000 ]
      - [ -0.31467101300372,  0.00000000000000 ]
    - # atom 8
      - [ -0.00000000000000,  0.00000000000000 ]
      - [ -0.00000000000000,  0.00000000000000 ]
      - [  0.31467101300372,  0.00000000000000 ]
  - # 15
    frequency:     3.6668416235
    eigenvector:
    - # atom 1
      - [ -0.06188865838444,  0.00000000000000 ]
      - [  0.38447054773555,  0.00000000000000 ]
      - [  0.00000000000000,  0.00000000000000 ]
    - # atom 2
      - [ -0.06188865838444,  0.00000000000000 ]
      - [  0.38447054773555,  0.00000000000000 ]
      - [  0.00000000000000,  0.00000000000000 ]
    - # atom 3
      - [  0.06188865838448,  0.00000000000000 ]
      - [  0.38447054773554,  0.00000000000000 ]
      - [  0.00000000000000,  0.00000000000000 ]
    - # atom 4
      - [  0.06188865838448,  0.00000000000000 ]
      - [  0.38447054773554,  0.00000000000000 ]
      - [ -0.00000000000000,  0.00000000000000 ]
    - # atom 5
      - [  0.00559103749235,  0.00000000000000 ]
      - [ -0.31356168800902,  0.00000000000000 ]
      - [  0.00000000000000,  0.00000000000000 ]
    - # atom 6
      - [  0.00559103749235,  0.00000000000000 ]
      - [ -0.31356168800902,  0.00000000000000 ]
      - [ -0.00000000000000,  0.00000000000000 ]
    - # atom 7
      - [ -0.00559103749239,  0.00000000000000 ]
      - [ -0.31356168800901,  0.00000000000000 ]
      - [  0.00000000000000,  0.00000000000000 ]
    - # atom 8
      - [ -0.00559103749239,  0.00000000000000 ]
      - [ -0.31356168800901,  0.00000000000000 ]
      - [ -0.00000000000000,  0.00000000000000 ]
  - # 16
    frequency:     3.6694887065
    eigenvector:
    - # atom 1
      - [  0.37006150967023,  0.00000000000000 ]
      - [  0.08670118275697,  0.00000000000000 ]
      - [ -0.00000000000000,  0.00000000000000 ]
    - # atom 2
      - [  0.37006150967023,  0.00000000000000 ]
      - [  0.08670118275697,  0.00000000000000 ]
      - [ -0.00000000000000,  0.00000000000000 ]
    - # atom 3
      - [  0.37006150967022,  0.00000000000000 ]
      - [ -0.08670118275702,  0.00000000000000 ]
      - [  0.00000000000000,  0.00000000000000 ]
    - # atom 4
      - [  0.37006150967022,  0.00000000000000 ]
      - [ -0.08670118275702,  0.00000000000000 ]
      - [  0.00000000000000,  0.00000000000000 ]
    - # atom 5
      - [ -0.30181014468545,  0.00000000000000 ]
      - [ -0.12019991902691,  0.00000000000000 ]
      - [  0.00000000000000,  0.00000000000000 ]
    - # atom 6
      - [ -0.30181014468545,  0.00000000000000 ]
      - [ -0.12019991902691,  0.00000000000000 ]
      - [  0.00000000000000,  0.00000000000000 ]
    - # atom 7
      - [ -0.30181014468545,  0.00000000000000 ]
      - [  0.12019991902695,  0.00000000000000 ]
      - [ -0.00000000000000,  0.00000000000000 ]
    - # atom 8
      - [ -0.30181014468545,  0.00000000000000 ]
      - [  0.12019991902695,  0.00000000000000 ]
      - [ -0.00000000000000,  0.00000000000000 ]
  - # 17
    frequency:     3.8034904179
    eigenvector:
    - # atom 1
      - [ -0.00000000000000,  0.00000000000000 ]
      - [ -0.00000000000000,  0.00000000000000 ]
      - [ -0.45760226394630,  0.00000000000000 ]
    - # atom 2
      - [ -0.00000000000000,  0.00000000000000 ]
      - [  0.00000000000000,  0.00000000000000 ]
      - [ -0.45760226394630,  0.00000000000000 ]
    - # atom 3
      - [ -0.00000000000000,  0.00000000000000 ]
      - [  0.00000000000000,  0.00000000000000 ]
      - [  0.45760226394630,  0.00000000000000 ]
    - # atom 4
      - [ -0.00000000000000,  0.00000000000000 ]
      - [  0.00000000000000,  0.00000000000000 ]
      - [  0.45760226394630,  0.00000000000000 ]
    - # atom 5
      - [  0.00000000000000,  0.00000000000000 ]
      - [  0.00000000000000,  0.00000000000000 ]
      - [  0.20149483375815,  0.00000000000000 ]
    - # atom 6
      - [  0.00000000000000,  0.00000000000000 ]
      - [  0.00000000000000,  0.00000000000000 ]
      - [  0.20149483375815,  0.00000000000000 ]
    - # atom 7
      - [  0.00000000000000,  0.00000000000000 ]
      - [ -0.00000000000000,  0.00000000000000 ]
      - [ -0.20149483375815,  0.00000000000000 ]
    - # atom 8
      - [  0.00000000000000,  0.00000000000000 ]
      - [ -0.00000000000000,  0.00000000000000 ]
      - [ -0.20149483375815,  0.00000000000000 ]
  - # 18
    frequency:     3.9211186641
    eigenvector:
    - # atom 1
      - [ -0.38699782432868,  0.00000000000000 ]
      - [ -0.14056041299917,  0.00000000000000 ]
      - [  0.00000000000000,  0.00000000000000 ]
    - # atom 2
      - [  0.38699782432868,  0.00000000000000 ]
      - [  0.14056041299917,  0.00000000000000 ]
      - [  0.00000000000000,  0.00000000000000 ]
    - # atom 3
      - [ -0.38699782432868,  0.00000000000000 ]
      - [  0.14056041299917,  0.00000000000000 ]
      - [ -0.00000000000000,  0.00000000000000 ]
    - # atom 4
      - [  0.38699782432868,  0.00000000000000 ]
      - [ -0.14056041299917,  0.00000000000000 ]
      - [ -0.00000000000000,  0.00000000000000 ]
    - # atom 5
      - [ -0.25511233133752,  0.00000000000000 ]
      - [ -0.12406914468112,  0.00000000000000 ]
      - [ -0.00000000000000,  0.00000000000000 ]
    - # atom 6
      - [  0.25511233133752,  0.00000000000000 ]
      - [  0.12406914468112,  0.00000000000000 ]
      - [ -0.00000000000000,  0.00000000000000 ]
    - # atom 7
      - [ -0.25511233133752,  0.00000000000000 ]
      - [  0.12406914468112,  0.00000000000000 ]
      - [  0.00000000000000,  0.00000000000000 ]
    - # atom 8
      - [  0.25511233133752,  0.00000000000000 ]
      - [ -0.12406914468112,  0.00000000000000 ]
      - [  0.00000000000000,  0.00000000000000 ]
  - # 19
    frequency:     4.1180102261
    eigenvector:
    - # atom 1
      - [ -0.00000000000000,  0.00000000000000 ]
      - [  0.00000000000000,  0.00000000000000 ]
      - [ -0.45062547697454,  0.00000000000000 ]
    - # atom 2
      - [  0.00000000000000,  0.00000000000000 ]
      - [  0.00000000000000,  0.00000000000000 ]
      - [  0.45062547697454,  0.00000000000000 ]
    - # atom 3
      - [ -0.00000000000000,  0.00000000000000 ]
      - [ -0.00000000000000,  0.00000000000000 ]
      - [  0.45062547697455,  0.00000000000000 ]
    - # atom 4
      - [ -0.00000000000000,  0.00000000000000 ]
      - [ -0.00000000000000,  0.00000000000000 ]
      - [ -0.45062547697455,  0.00000000000000 ]
    - # atom 5
      - [  0.00000000000000,  0.00000000000000 ]
      - [  0.00000000000000,  0.00000000000000 ]
      - [ -0.21664874682643,  0.00000000000000 ]
    - # atom 6
      - [  0.00000000000000,  0.00000000000000 ]
      - [  0.00000000000000,  0.00000000000000 ]
      - [  0.21664874682643,  0.00000000000000 ]
    - # atom 7
      - [  0.00000000000000,  0.00000000000000 ]
      - [ -0.00000000000000,  0.00000000000000 ]
      - [  0.21664874682643,  0.00000000000000 ]
    - # atom 8
      - [  0.00000000000000,  0.00000000000000 ]
      - [ -0.00000000000000,  0.00000000000000 ]
      - [ -0.21664874682643,  0.00000000000000 ]
  - # 20
    frequency:     4.2971598759
    eigenvector:
    - # atom 1
      - [  0.43658376213805,  0.00000000000000 ]
      - [  0.04427389896337,  0.00000000000000 ]
      - [ -0.00000000000000,  0.00000000000000 ]
    - # atom 2
      - [  0.43658376213805,  0.00000000000000 ]
      - [  0.04427389896337,  0.00000000000000 ]
      - [ -0.00000000000000,  0.00000000000000 ]
    - # atom 3
      - [ -0.43658376213804,  0.00000000000000 ]
      - [  0.04427389896337,  0.00000000000000 ]
      - [  0.00000000000000,  0.00000000000000 ]
    - # atom 4
      - [ -0.43658376213805,  0.00000000000000 ]
      - [  0.04427389896338,  0.00000000000000 ]
      - [  0.00000000000000,  0.00000000000000 ]
    - # atom 5
      - [ -0.23691903112013,  0.00000000000000 ]
      - [ -0.03610835361892,  0.00000000000000 ]
      - [  0.00000000000000,  0.00000000000000 ]
    - # atom 6
      - [ -0.23691903112013,  0.00000000000000 ]
      - [ -0.03610835361892,  0.00000000000000 ]
      - [  0.00000000000000,  0.00000000000000 ]
    - # atom 7
      - [  0.23691903112013,  0.00000000000000 ]
      - [ -0.03610835361892,  0.00000000000000 ]
      - [ -0.00000000000000,  0.00000000000000 ]
    - # atom 8
      - [  0.23691903112013,  0.00000000000000 ]
      - [ -0.03610835361892,  0.00000000000000 ]
      - [ -0.00000000000000,  0.00000000000000 ]
  - # 21
    frequency:     4.3765116514
    eigenvector:
    - # atom 1
      - [ -0.43309365501618,  0.00000000000000 ]
      - [  0.11071834333038,  0.00000000000000 ]
      - [  0.00000000000000,  0.00000000000000 ]
    - # atom 2
      - [  0.43309365501618,  0.00000000000000 ]
      - [ -0.11071834333038,  0.00000000000000 ]
      - [ -0.00000000000000,  0.00000000000000 ]
    - # atom 3
      - [  0.43309365501618,  0.00000000000000 ]
      - [  0.11071834333038,  0.00000000000000 ]
      - [ -0.00000000000000,  0.00000000000000 ]
    - # atom 4
      - [ -0.43309365501618,  0.00000000000000 ]
      - [ -0.11071834333038,  0.00000000000000 ]
      - [  0.00000000000000,  0.00000000000000 ]
    - # atom 5
      - [ -0.22188158668202,  0.00000000000000 ]
      - [  0.03065772213282,  0.00000000000000 ]
      - [  0.00000000000000,  0.00000000000000 ]
    - # atom 6
      - [  0.22188158668202,  0.00000000000000 ]
      - [ -0.03065772213282,  0.00000000000000 ]
      - [ -0.00000000000000,  0.00000000000000 ]
    - # atom 7
      - [  0.22188158668202,  0.00000000000000 ]
      - [  0.03065772213282,  0.00000000000000 ]
      - [ -0.00000000000000,  0.00000000000000 ]
    - # atom 8
      - [ -0.22188158668202,  0.00000000000000 ]
      - [ -0.03065772213282,  0.00000000000000 ]
      - [  0.00000000000000,  0.00000000000000 ]
  - # 22
    frequency:     4.4984346349