phonopy:
  version: 2.14.0
  frequency_unit_conversion_factor: 15.633302
  symmetry_tolerance: 1.00000e-05
  configuration:
    cell_filename: "POSCAR.Opt"
    fc_symmetry: ".true."
    eigenvectors: ".true."
    mesh_numbers: "1 1 1"
    dim: "1 1 1"
    gamma_center: ".true."

physical_unit:
  atomic_mass: "AMU"
  length: "angstrom"
  force_constants: "eV/angstrom^2"

space_group:
  type: "Pnma"
  number: 62
  Hall_symbol: "-P 2ac 2n"

supercell_matrix:
- [   1,   0,   0 ]
- [   0,   1,   0 ]
- [   0,   0,   1 ]

primitive_cell:
  lattice:
  - [     4.329886974695666,     0.000000000000000,     0.000000000000000 ] # a
  - [     0.000000000000000,    11.346041555983788,     0.000000000000000 ] # b
  - [     0.000000000000000,     0.000000000000000,     4.119783254563575 ] # c
  points:
  - symbol: Se # 1
    coordinates: [  0.472912338506834,  0.856893349000924,  0.250000000000000 ]
    mass: 78.960000
  - symbol: Se # 2
    coordinates: [  0.527087691493169,  0.143106665999082,  0.750000000000000 ]
    mass: 78.960000
  - symbol: Se # 3
    coordinates: [  0.972912308506831,  0.643106650999076,  0.750000000000000 ]
    mass: 78.960000
  - symbol: Se # 4
    coordinates: [  0.027087661493166,  0.356893349000924,  0.250000000000000 ]
    mass: 78.960000
  - symbol: Sn # 5
    coordinates: [  0.097063625598221,  0.115177112359937,  0.250000000000000 ]
    mass: 118.710000
  - symbol: Sn # 6
    coordinates: [  0.902936389401776,  0.884822857640068,  0.750000000000000 ]
    mass: 118.710000
  - symbol: Sn # 7
    coordinates: [  0.597063610598224,  0.384822887640062,  0.750000000000000 ]
    mass: 118.710000
  - symbol: Sn # 8
    coordinates: [  0.402936389401777,  0.615177142359932,  0.250000000000000 ]
    mass: 118.710000
  reciprocal_lattice: # without 2pi
  - [     0.230952910744347,     0.000000000000000,    -0.000000000000000 ] # a*
  - [     0.000000000000000,     0.088136465485851,     0.000000000000000 ] # b*
  - [     0.000000000000000,     0.000000000000000,     0.242731216233834 ] # c*

unit_cell:
  lattice:
  - [     4.329886974695666,     0.000000000000000,    -0.000000000000000 ] # a
  - [     0.000000000000000,    11.346041555983788,     0.000000000000000 ] # b
  - [     0.000000000000000,     0.000000000000000,     4.119783254563575 ] # c
  points:
  - symbol: Se # 1
    coordinates: [  0.472912338506834,  0.856893349000924,  0.250000000000000 ]
    mass: 78.960000
    reduced_to: 1
  - symbol: Se # 2
    coordinates: [  0.527087691493169,  0.143106665999082,  0.750000000000000 ]
    mass: 78.960000
    reduced_to: 2
  - symbol: Se # 3
    coordinates: [  0.972912308506831,  0.643106650999076,  0.750000000000000 ]
    mass: 78.960000
    reduced_to: 3
  - symbol: Se # 4
    coordinates: [  0.027087661493166,  0.356893349000924,  0.250000000000000 ]
    mass: 78.960000
    reduced_to: 4
  - symbol: Sn # 5
    coordinates: [  0.097063625598221,  0.115177112359937,  0.250000000000000 ]
    mass: 118.710000
    reduced_to: 5
  - symbol: Sn # 6
    coordinates: [  0.902936389401776,  0.884822857640068,  0.750000000000000 ]
    mass: 118.710000
    reduced_to: 6
  - symbol: Sn # 7
    coordinates: [  0.597063610598224,  0.384822887640062,  0.750000000000000 ]
    mass: 118.710000
    reduced_to: 7
  - symbol: Sn # 8
    coordinates: [  0.402936389401777,  0.615177142359932,  0.250000000000000 ]
    mass: 118.710000
    reduced_to: 8

supercell:
  lattice:
  - [     4.329886974695666,     0.000000000000000,     0.000000000000000 ] # a
  - [     0.000000000000000,    11.346041555983788,     0.000000000000000 ] # b
  - [     0.000000000000000,     0.000000000000000,     4.119783254563575 ] # c
  points:
  - symbol: Se # 1
    coordinates: [  0.472912338506834,  0.856893349000924,  0.250000000000000 ]
    mass: 78.960000
    reduced_to: 1
  - symbol: Se # 2
    coordinates: [  0.527087691493169,  0.143106665999082,  0.750000000000000 ]
    mass: 78.960000
    reduced_to: 2
  - symbol: Se # 3
    coordinates: [  0.972912308506831,  0.643106650999076,  0.750000000000000 ]
    mass: 78.960000
    reduced_to: 3
  - symbol: Se # 4
    coordinates: [  0.027087661493166,  0.356893349000924,  0.250000000000000 ]
    mass: 78.960000
    reduced_to: 4
  - symbol: Sn # 5
    coordinates: [  0.097063625598221,  0.115177112359937,  0.250000000000000 ]
    mass: 118.710000
    reduced_to: 5
  - symbol: Sn # 6
    coordinates: [  0.902936389401776,  0.884822857640068,  0.750000000000000 ]
    mass: 118.710000
    reduced_to: 6
  - symbol: Sn # 7
    coordinates: [  0.597063610598224,  0.384822887640062,  0.750000000000000 ]
    mass: 118.710000
    reduced_to: 7
  - symbol: Sn # 8
    coordinates: [  0.402936389401777,  0.615177142359932,  0.250000000000000 ]
    mass: 118.710000
    reduced_to: 8
